
Host: DTSs-MacBook-Pro-2.local

Timers On : Wed Jul 26 15:15:35 2017
Timers Off: Wed Jul 26 15:15:39 2017

Wall Time:        4.21 seconds


-----------------------------------------------------------

***********************************************************

Host: DTSs-MacBook-Pro-2.local

Timers On : Wed Jul 26 15:17:05 2017
Timers Off: Wed Jul 26 15:17:09 2017

Wall Time:        4.30 seconds

Total PK formation time     :      0.050u      0.000s      0.067w      1 calls
HF: Form H                  :      0.000u      0.017s      0.054w      1 calls
HF: Form S/X                :      0.000u      0.000s      0.027w      1 calls
HF: Guess                   :      0.150u      0.000s      0.475w      1 calls
SAD Guess                   :      0.150u      0.000s      0.457w      1 calls
HF: Form G                  :      0.000u      0.000s      0.065w      8 calls
JK: D                       :      0.000u      0.000s      0.000w      8 calls
JK: USO2AO                  :      0.000u      0.000s      0.003w      8 calls
JK: JK                      :      0.000u      0.000s      0.030w      8 calls
PK computes JK              :      0.000u      0.000s      0.029w      8 calls
JK: AO2USO                  :      0.000u      0.000s      0.000w      8 calls
HF: Form F                  :      0.017u      0.000s      0.000w      8 calls
HF: DIIS                    :      0.000u      0.017s      0.001w      8 calls
DIISManager::add_entry      :      0.000u      0.017s      0.001w      7 calls
DIISManager::extrapolate    :      0.000u      0.000s      0.000w      6 calls
DIISManager::extrapolate: bMatrix setup:      0.000u      0.000s      0.000w      6 calls
DIISManager::extrapolate: bMatrix pseudoinverse:      0.000u      0.000s      0.000w      6 calls
DIISManager::extrapolate: form new data:      0.000u      0.000s      0.000w      6 calls
HF: Form C                  :      0.000u      0.000s      0.017w      8 calls
HF: Form D                  :      0.000u      0.000s      0.000w      8 calls

-----------------------------------------------------------
Total PK formation time     :      0.050u      0.000s      0.067w      1 calls
HF: Form H                  :      0.000u      0.017s      0.054w      1 calls
HF: Form S/X                :      0.000u      0.000s      0.027w      1 calls
HF: Guess                   :      0.150u      0.000s      0.475w      1 calls
| SAD Guess                 :      0.150u      0.000s      0.457w      1 calls
HF: Form G                  :      0.000u      0.000s      0.065w      8 calls
| JK: D                     :      0.000u      0.000s      0.000w      8 calls
| JK: USO2AO                :      0.000u      0.000s      0.003w      8 calls
| JK: JK                    :      0.000u      0.000s      0.030w      8 calls
| | PK computes JK          :      0.000u      0.000s      0.029w      8 calls
| JK: AO2USO                :      0.000u      0.000s      0.000w      8 calls
HF: Form F                  :      0.017u      0.000s      0.000w      8 calls
HF: DIIS                    :      0.000u      0.017s      0.001w      8 calls
| DIISManager::add_entry    :      0.000u      0.017s      0.001w      7 calls
| DIISManager::extrapolate  :      0.000u      0.000s      0.000w      6 calls
| | DIISManager::extrapolate: bMatrix setup:      0.000u      0.000s      0.000w      6 calls
| | DIISManager::extrapolate: bMatrix pseudoinverse:      0.000u      0.000s      0.000w      6 calls
| | DIISManager::extrapolate: form new data:      0.000u      0.000s      0.000w      6 calls
HF: Form C                  :      0.000u      0.000s      0.017w      8 calls
HF: Form D                  :      0.000u      0.000s      0.000w      8 calls

***********************************************************

Host: DTSs-MacBook-Pro-2.local

Timers On : Wed Jul 26 15:22:17 2017
Timers Off: Wed Jul 26 15:22:40 2017

Wall Time:       22.96 seconds

Total PK formation time     :      0.033u      0.000s      0.145w      1 calls
HF: Form H                  :      0.000u      0.000s      0.432w      1 calls
HF: Form S/X                :      0.000u      0.000s      0.104w      1 calls
HF: Guess                   :      0.150u      0.017s      1.366w      1 calls
SAD Guess                   :      0.133u      0.017s      1.361w      1 calls
HF: Form G                  :      0.017u      0.017s      0.209w      8 calls
JK: D                       :      0.000u      0.000s      0.000w      8 calls
JK: USO2AO                  :      0.000u      0.017s      0.014w      8 calls
JK: JK                      :      0.000u      0.000s      0.009w      8 calls
PK computes JK              :      0.000u      0.000s      0.009w      8 calls
JK: AO2USO                  :      0.000u      0.000s      0.000w      8 calls
HF: Form F                  :      0.000u      0.000s      0.000w      8 calls
HF: DIIS                    :      0.000u      0.000s      0.002w      8 calls
DIISManager::add_entry      :      0.000u      0.000s      0.001w      7 calls
DIISManager::extrapolate    :      0.000u      0.000s      0.001w      6 calls
DIISManager::extrapolate: bMatrix setup:      0.000u      0.000s      0.000w      6 calls
DIISManager::extrapolate: bMatrix pseudoinverse:      0.000u      0.000s      0.000w      6 calls
DIISManager::extrapolate: form new data:      0.000u      0.000s      0.000w      6 calls
HF: Form C                  :      0.000u      0.000s      0.058w      8 calls
HF: Form D                  :      0.000u      0.000s      0.000w      8 calls

-----------------------------------------------------------
Total PK formation time     :      0.033u      0.000s      0.145w      1 calls
HF: Form H                  :      0.000u      0.000s      0.432w      1 calls
HF: Form S/X                :      0.000u      0.000s      0.104w      1 calls
HF: Guess                   :      0.150u      0.017s      1.366w      1 calls
| SAD Guess                 :      0.133u      0.017s      1.361w      1 calls
HF: Form G                  :      0.017u      0.017s      0.209w      8 calls
| JK: D                     :      0.000u      0.000s      0.000w      8 calls
| JK: USO2AO                :      0.000u      0.017s      0.014w      8 calls
| JK: JK                    :      0.000u      0.000s      0.009w      8 calls
| | PK computes JK          :      0.000u      0.000s      0.009w      8 calls
| JK: AO2USO                :      0.000u      0.000s      0.000w      8 calls
HF: Form F                  :      0.000u      0.000s      0.000w      8 calls
HF: DIIS                    :      0.000u      0.000s      0.002w      8 calls
| DIISManager::add_entry    :      0.000u      0.000s      0.001w      7 calls
| DIISManager::extrapolate  :      0.000u      0.000s      0.001w      6 calls
| | DIISManager::extrapolate: bMatrix setup:      0.000u      0.000s      0.000w      6 calls
| | DIISManager::extrapolate: bMatrix pseudoinverse:      0.000u      0.000s      0.000w      6 calls
| | DIISManager::extrapolate: form new data:      0.000u      0.000s      0.000w      6 calls
HF: Form C                  :      0.000u      0.000s      0.058w      8 calls
HF: Form D                  :      0.000u      0.000s      0.000w      8 calls

***********************************************************

Host: DTSs-MacBook-Pro-2.local

Timers On : Wed Jul 26 15:25:08 2017
Timers Off: Wed Jul 26 15:25:12 2017

Wall Time:        4.70 seconds


-----------------------------------------------------------

***********************************************************

Host: DTSs-MacBook-Pro-2.local

Timers On : Wed Jul 26 15:25:36 2017
Timers Off: Wed Jul 26 15:25:38 2017

Wall Time:        1.82 seconds

Total PK formation time     :      0.050u      0.000s      0.066w      1 calls
HF: Form H                  :      0.000u      0.000s      0.046w      1 calls
HF: Form S/X                :      0.000u      0.017s      0.001w      1 calls
HF: Guess                   :      0.150u      0.000s      0.268w      1 calls
SAD Guess                   :      0.150u      0.000s      0.254w      1 calls
HF: Form G                  :      0.000u      0.000s      0.038w      8 calls
JK: D                       :      0.000u      0.000s      0.000w      8 calls
JK: USO2AO                  :      0.000u      0.000s      0.021w      8 calls
JK: JK                      :      0.000u      0.000s      0.000w      8 calls
PK computes JK              :      0.000u      0.000s      0.000w      8 calls
JK: AO2USO                  :      0.000u      0.000s      0.000w      8 calls
HF: Form F                  :      0.000u      0.000s      0.000w      8 calls
HF: DIIS                    :      0.000u      0.000s      0.002w      8 calls
DIISManager::add_entry      :      0.000u      0.000s      0.001w      7 calls
DIISManager::extrapolate    :      0.000u      0.000s      0.001w      6 calls
DIISManager::extrapolate: bMatrix setup:      0.000u      0.000s      0.000w      6 calls
DIISManager::extrapolate: bMatrix pseudoinverse:      0.000u      0.000s      0.000w      6 calls
DIISManager::extrapolate: form new data:      0.000u      0.000s      0.000w      6 calls
HF: Form C                  :      0.000u      0.000s      0.011w      8 calls
HF: Form D                  :      0.000u      0.000s      0.000w      8 calls

-----------------------------------------------------------
Total PK formation time     :      0.050u      0.000s      0.066w      1 calls
HF: Form H                  :      0.000u      0.000s      0.046w      1 calls
HF: Form S/X                :      0.000u      0.017s      0.001w      1 calls
HF: Guess                   :      0.150u      0.000s      0.268w      1 calls
| SAD Guess                 :      0.150u      0.000s      0.254w      1 calls
HF: Form G                  :      0.000u      0.000s      0.038w      8 calls
| JK: D                     :      0.000u      0.000s      0.000w      8 calls
| JK: USO2AO                :      0.000u      0.000s      0.021w      8 calls
| JK: JK                    :      0.000u      0.000s      0.000w      8 calls
| | PK computes JK          :      0.000u      0.000s      0.000w      8 calls
| JK: AO2USO                :      0.000u      0.000s      0.000w      8 calls
HF: Form F                  :      0.000u      0.000s      0.000w      8 calls
HF: DIIS                    :      0.000u      0.000s      0.002w      8 calls
| DIISManager::add_entry    :      0.000u      0.000s      0.001w      7 calls
| DIISManager::extrapolate  :      0.000u      0.000s      0.001w      6 calls
| | DIISManager::extrapolate: bMatrix setup:      0.000u      0.000s      0.000w      6 calls
| | DIISManager::extrapolate: bMatrix pseudoinverse:      0.000u      0.000s      0.000w      6 calls
| | DIISManager::extrapolate: form new data:      0.000u      0.000s      0.000w      6 calls
HF: Form C                  :      0.000u      0.000s      0.011w      8 calls
HF: Form D                  :      0.000u      0.000s      0.000w      8 calls

***********************************************************

Host: DTSs-MacBook-Pro-2.local

Timers On : Wed Jul 26 15:29:06 2017
Timers Off: Wed Jul 26 15:29:13 2017

Wall Time:        6.55 seconds


-----------------------------------------------------------

***********************************************************

Host: DTSs-MacBook-Pro-2.local

Timers On : Wed Jul 26 15:30:22 2017
Timers Off: Wed Jul 26 15:30:24 2017

Wall Time:        1.79 seconds

Total PK formation time     :      0.033u      0.000s      0.023w      1 calls
HF: Form H                  :      0.000u      0.000s      0.003w      1 calls
HF: Form S/X                :      0.000u      0.000s      0.000w      1 calls
HF: Guess                   :      0.150u      0.017s      0.193w      1 calls
SAD Guess                   :      0.133u      0.017s      0.190w      1 calls
HF: Form G                  :      0.000u      0.000s      0.017w      8 calls
JK: D                       :      0.000u      0.000s      0.000w      8 calls
JK: USO2AO                  :      0.000u      0.000s      0.000w      8 calls
JK: JK                      :      0.000u      0.000s      0.017w      8 calls
PK computes JK              :      0.000u      0.000s      0.017w      8 calls
JK: AO2USO                  :      0.000u      0.000s      0.000w      8 calls
HF: Form F                  :      0.000u      0.000s      0.000w      8 calls
HF: DIIS                    :      0.000u      0.000s      0.012w      8 calls
DIISManager::add_entry      :      0.000u      0.000s      0.011w      7 calls
DIISManager::extrapolate    :      0.000u      0.000s      0.001w      6 calls
DIISManager::extrapolate: bMatrix setup:      0.000u      0.000s      0.000w      6 calls
DIISManager::extrapolate: bMatrix pseudoinverse:      0.000u      0.000s      0.000w      6 calls
DIISManager::extrapolate: form new data:      0.000u      0.000s      0.000w      6 calls
HF: Form C                  :      0.000u      0.000s      0.000w      8 calls
HF: Form D                  :      0.000u      0.000s      0.000w      8 calls

-----------------------------------------------------------
Total PK formation time     :      0.033u      0.000s      0.023w      1 calls
HF: Form H                  :      0.000u      0.000s      0.003w      1 calls
HF: Form S/X                :      0.000u      0.000s      0.000w      1 calls
HF: Guess                   :      0.150u      0.017s      0.193w      1 calls
| SAD Guess                 :      0.133u      0.017s      0.190w      1 calls
HF: Form G                  :      0.000u      0.000s      0.017w      8 calls
| JK: D                     :      0.000u      0.000s      0.000w      8 calls
| JK: USO2AO                :      0.000u      0.000s      0.000w      8 calls
| JK: JK                    :      0.000u      0.000s      0.017w      8 calls
| | PK computes JK          :      0.000u      0.000s      0.017w      8 calls
| JK: AO2USO                :      0.000u      0.000s      0.000w      8 calls
HF: Form F                  :      0.000u      0.000s      0.000w      8 calls
HF: DIIS                    :      0.000u      0.000s      0.012w      8 calls
| DIISManager::add_entry    :      0.000u      0.000s      0.011w      7 calls
| DIISManager::extrapolate  :      0.000u      0.000s      0.001w      6 calls
| | DIISManager::extrapolate: bMatrix setup:      0.000u      0.000s      0.000w      6 calls
| | DIISManager::extrapolate: bMatrix pseudoinverse:      0.000u      0.000s      0.000w      6 calls
| | DIISManager::extrapolate: form new data:      0.000u      0.000s      0.000w      6 calls
HF: Form C                  :      0.000u      0.000s      0.000w      8 calls
HF: Form D                  :      0.000u      0.000s      0.000w      8 calls

***********************************************************

Host: DTSs-MacBook-Pro-2.local

Timers On : Wed Jul 26 15:31:50 2017
Timers Off: Wed Jul 26 15:31:50 2017

Wall Time:        0.32 seconds


-----------------------------------------------------------

***********************************************************

Host: DTSs-MacBook-Pro-2.local

Timers On : Wed Jul 26 15:32:22 2017
Timers Off: Wed Jul 26 15:32:23 2017

Wall Time:        0.75 seconds

Total PK formation time     :      0.033u      0.000s      0.022w      1 calls
HF: Form H                  :      0.000u      0.000s      0.003w      1 calls
HF: Form S/X                :      0.000u      0.000s      0.000w      1 calls
HF: Guess                   :      0.133u      0.000s      0.082w      1 calls
SAD Guess                   :      0.133u      0.000s      0.079w      1 calls
HF: Form G                  :      0.000u      0.000s      0.000w      8 calls
JK: D                       :      0.000u      0.000s      0.000w      8 calls
JK: USO2AO                  :      0.000u      0.000s      0.000w      8 calls
JK: JK                      :      0.000u      0.000s      0.000w      8 calls
PK computes JK              :      0.000u      0.000s      0.000w      8 calls
JK: AO2USO                  :      0.000u      0.000s      0.000w      8 calls
HF: Form F                  :      0.000u      0.000s      0.000w      8 calls
HF: DIIS                    :      0.000u      0.000s      0.001w      8 calls
DIISManager::add_entry      :      0.000u      0.000s      0.000w      7 calls
DIISManager::extrapolate    :      0.000u      0.000s      0.000w      6 calls
DIISManager::extrapolate: bMatrix setup:      0.000u      0.000s      0.000w      6 calls
DIISManager::extrapolate: bMatrix pseudoinverse:      0.000u      0.000s      0.000w      6 calls
DIISManager::extrapolate: form new data:      0.000u      0.000s      0.000w      6 calls
HF: Form C                  :      0.000u      0.000s      0.000w      8 calls
HF: Form D                  :      0.000u      0.000s      0.000w      8 calls

-----------------------------------------------------------
Total PK formation time     :      0.033u      0.000s      0.022w      1 calls
HF: Form H                  :      0.000u      0.000s      0.003w      1 calls
HF: Form S/X                :      0.000u      0.000s      0.000w      1 calls
HF: Guess                   :      0.133u      0.000s      0.082w      1 calls
| SAD Guess                 :      0.133u      0.000s      0.079w      1 calls
HF: Form G                  :      0.000u      0.000s      0.000w      8 calls
| JK: D                     :      0.000u      0.000s      0.000w      8 calls
| JK: USO2AO                :      0.000u      0.000s      0.000w      8 calls
| JK: JK                    :      0.000u      0.000s      0.000w      8 calls
| | PK computes JK          :      0.000u      0.000s      0.000w      8 calls
| JK: AO2USO                :      0.000u      0.000s      0.000w      8 calls
HF: Form F                  :      0.000u      0.000s      0.000w      8 calls
HF: DIIS                    :      0.000u      0.000s      0.001w      8 calls
| DIISManager::add_entry    :      0.000u      0.000s      0.000w      7 calls
| DIISManager::extrapolate  :      0.000u      0.000s      0.000w      6 calls
| | DIISManager::extrapolate: bMatrix setup:      0.000u      0.000s      0.000w      6 calls
| | DIISManager::extrapolate: bMatrix pseudoinverse:      0.000u      0.000s      0.000w      6 calls
| | DIISManager::extrapolate: form new data:      0.000u      0.000s      0.000w      6 calls
HF: Form C                  :      0.000u      0.000s      0.000w      8 calls
HF: Form D                  :      0.000u      0.000s      0.000w      8 calls

***********************************************************

Host: DTSs-MacBook-Pro-2.local

Timers On : Wed Jul 26 15:33:16 2017
Timers Off: Wed Jul 26 15:33:17 2017

Wall Time:        0.30 seconds


-----------------------------------------------------------

***********************************************************

Host: DTSs-MacBook-Pro-2.local

Timers On : Wed Jul 26 15:34:13 2017
Timers Off: Wed Jul 26 15:34:13 2017

Wall Time:        0.68 seconds

Total PK formation time     :      0.033u      0.000s      0.023w      1 calls
HF: Form H                  :      0.000u      0.000s      0.003w      1 calls
HF: Form S/X                :      0.000u      0.000s      0.000w      1 calls
HF: Guess                   :      0.133u      0.000s      0.080w      1 calls
SAD Guess                   :      0.117u      0.000s      0.078w      1 calls
HF: Form G                  :      0.000u      0.000s      0.000w      8 calls
JK: D                       :      0.000u      0.000s      0.000w      8 calls
JK: USO2AO                  :      0.000u      0.000s      0.000w      8 calls
JK: JK                      :      0.000u      0.000s      0.000w      8 calls
PK computes JK              :      0.000u      0.000s      0.000w      8 calls
JK: AO2USO                  :      0.000u      0.000s      0.000w      8 calls
HF: Form F                  :      0.000u      0.000s      0.000w      8 calls
HF: DIIS                    :      0.000u      0.000s      0.001w      8 calls
DIISManager::add_entry      :      0.000u      0.000s      0.000w      7 calls
DIISManager::extrapolate    :      0.000u      0.000s      0.000w      6 calls
DIISManager::extrapolate: bMatrix setup:      0.000u      0.000s      0.000w      6 calls
DIISManager::extrapolate: bMatrix pseudoinverse:      0.000u      0.000s      0.000w      6 calls
DIISManager::extrapolate: form new data:      0.000u      0.000s      0.000w      6 calls
HF: Form C                  :      0.000u      0.000s      0.000w      8 calls
HF: Form D                  :      0.000u      0.000s      0.000w      8 calls

-----------------------------------------------------------
Total PK formation time     :      0.033u      0.000s      0.023w      1 calls
HF: Form H                  :      0.000u      0.000s      0.003w      1 calls
HF: Form S/X                :      0.000u      0.000s      0.000w      1 calls
HF: Guess                   :      0.133u      0.000s      0.080w      1 calls
| SAD Guess                 :      0.117u      0.000s      0.078w      1 calls
HF: Form G                  :      0.000u      0.000s      0.000w      8 calls
| JK: D                     :      0.000u      0.000s      0.000w      8 calls
| JK: USO2AO                :      0.000u      0.000s      0.000w      8 calls
| JK: JK                    :      0.000u      0.000s      0.000w      8 calls
| | PK computes JK          :      0.000u      0.000s      0.000w      8 calls
| JK: AO2USO                :      0.000u      0.000s      0.000w      8 calls
HF: Form F                  :      0.000u      0.000s      0.000w      8 calls
HF: DIIS                    :      0.000u      0.000s      0.001w      8 calls
| DIISManager::add_entry    :      0.000u      0.000s      0.000w      7 calls
| DIISManager::extrapolate  :      0.000u      0.000s      0.000w      6 calls
| | DIISManager::extrapolate: bMatrix setup:      0.000u      0.000s      0.000w      6 calls
| | DIISManager::extrapolate: bMatrix pseudoinverse:      0.000u      0.000s      0.000w      6 calls
| | DIISManager::extrapolate: form new data:      0.000u      0.000s      0.000w      6 calls
HF: Form C                  :      0.000u      0.000s      0.000w      8 calls
HF: Form D                  :      0.000u      0.000s      0.000w      8 calls

***********************************************************

Host: DTSs-MacBook-Pro-2.local

Timers On : Wed Jul 26 15:34:22 2017
Timers Off: Wed Jul 26 15:34:22 2017

Wall Time:        0.28 seconds


-----------------------------------------------------------

***********************************************************

Host: DTSs-MacBook-Pro-2.local

Timers On : Wed Jul 26 15:36:26 2017
Timers Off: Wed Jul 26 15:36:26 2017

Wall Time:        0.67 seconds

Total PK formation time     :      0.033u      0.000s      0.025w      1 calls
HF: Form H                  :      0.000u      0.000s      0.003w      1 calls
HF: Form S/X                :      0.000u      0.000s      0.000w      1 calls
HF: Guess                   :      0.133u      0.000s      0.079w      1 calls
SAD Guess                   :      0.117u      0.000s      0.076w      1 calls
HF: Form G                  :      0.000u      0.000s      0.000w      8 calls
JK: D                       :      0.000u      0.000s      0.000w      8 calls
JK: USO2AO                  :      0.000u      0.000s      0.000w      8 calls
JK: JK                      :      0.000u      0.000s      0.000w      8 calls
PK computes JK              :      0.000u      0.000s      0.000w      8 calls
JK: AO2USO                  :      0.000u      0.000s      0.000w      8 calls
HF: Form F                  :      0.000u      0.000s      0.000w      8 calls
HF: DIIS                    :      0.000u      0.000s      0.001w      8 calls
DIISManager::add_entry      :      0.000u      0.000s      0.001w      7 calls
DIISManager::extrapolate    :      0.000u      0.000s      0.000w      6 calls
DIISManager::extrapolate: bMatrix setup:      0.000u      0.000s      0.000w      6 calls
DIISManager::extrapolate: bMatrix pseudoinverse:      0.000u      0.000s      0.000w      6 calls
DIISManager::extrapolate: form new data:      0.000u      0.000s      0.000w      6 calls
HF: Form C                  :      0.000u      0.000s      0.000w      8 calls
HF: Form D                  :      0.000u      0.000s      0.000w      8 calls

-----------------------------------------------------------
Total PK formation time     :      0.033u      0.000s      0.025w      1 calls
HF: Form H                  :      0.000u      0.000s      0.003w      1 calls
HF: Form S/X                :      0.000u      0.000s      0.000w      1 calls
HF: Guess                   :      0.133u      0.000s      0.079w      1 calls
| SAD Guess                 :      0.117u      0.000s      0.076w      1 calls
HF: Form G                  :      0.000u      0.000s      0.000w      8 calls
| JK: D                     :      0.000u      0.000s      0.000w      8 calls
| JK: USO2AO                :      0.000u      0.000s      0.000w      8 calls
| JK: JK                    :      0.000u      0.000s      0.000w      8 calls
| | PK computes JK          :      0.000u      0.000s      0.000w      8 calls
| JK: AO2USO                :      0.000u      0.000s      0.000w      8 calls
HF: Form F                  :      0.000u      0.000s      0.000w      8 calls
HF: DIIS                    :      0.000u      0.000s      0.001w      8 calls
| DIISManager::add_entry    :      0.000u      0.000s      0.001w      7 calls
| DIISManager::extrapolate  :      0.000u      0.000s      0.000w      6 calls
| | DIISManager::extrapolate: bMatrix setup:      0.000u      0.000s      0.000w      6 calls
| | DIISManager::extrapolate: bMatrix pseudoinverse:      0.000u      0.000s      0.000w      6 calls
| | DIISManager::extrapolate: form new data:      0.000u      0.000s      0.000w      6 calls
HF: Form C                  :      0.000u      0.000s      0.000w      8 calls
HF: Form D                  :      0.000u      0.000s      0.000w      8 calls

***********************************************************

Host: DTSs-MacBook-Pro-2.local

Timers On : Wed Jul 26 15:36:49 2017
Timers Off: Wed Jul 26 15:36:50 2017

Wall Time:        0.68 seconds

Total PK formation time     :      0.050u      0.000s      0.023w      1 calls
HF: Form H                  :      0.000u      0.000s      0.003w      1 calls
HF: Form S/X                :      0.000u      0.000s      0.000w      1 calls
HF: Guess                   :      0.117u      0.000s      0.078w      1 calls
SAD Guess                   :      0.117u      0.000s      0.076w      1 calls
HF: Form G                  :      0.000u      0.000s      0.000w      8 calls
JK: D                       :      0.000u      0.000s      0.000w      8 calls
JK: USO2AO                  :      0.000u      0.000s      0.000w      8 calls
JK: JK                      :      0.000u      0.000s      0.000w      8 calls
PK computes JK              :      0.000u      0.000s      0.000w      8 calls
JK: AO2USO                  :      0.000u      0.000s      0.000w      8 calls
HF: Form F                  :      0.000u      0.000s      0.000w      8 calls
HF: DIIS                    :      0.017u      0.000s      0.001w      8 calls
DIISManager::add_entry      :      0.017u      0.000s      0.000w      7 calls
DIISManager::extrapolate    :      0.000u      0.000s      0.000w      6 calls
DIISManager::extrapolate: bMatrix setup:      0.000u      0.000s      0.000w      6 calls
DIISManager::extrapolate: bMatrix pseudoinverse:      0.000u      0.000s      0.000w      6 calls
DIISManager::extrapolate: form new data:      0.000u      0.000s      0.000w      6 calls
HF: Form C                  :      0.000u      0.000s      0.000w      8 calls
HF: Form D                  :      0.000u      0.000s      0.000w      8 calls

-----------------------------------------------------------
Total PK formation time     :      0.050u      0.000s      0.023w      1 calls
HF: Form H                  :      0.000u      0.000s      0.003w      1 calls
HF: Form S/X                :      0.000u      0.000s      0.000w      1 calls
HF: Guess                   :      0.117u      0.000s      0.078w      1 calls
| SAD Guess                 :      0.117u      0.000s      0.076w      1 calls
HF: Form G                  :      0.000u      0.000s      0.000w      8 calls
| JK: D                     :      0.000u      0.000s      0.000w      8 calls
| JK: USO2AO                :      0.000u      0.000s      0.000w      8 calls
| JK: JK                    :      0.000u      0.000s      0.000w      8 calls
| | PK computes JK          :      0.000u      0.000s      0.000w      8 calls
| JK: AO2USO                :      0.000u      0.000s      0.000w      8 calls
HF: Form F                  :      0.000u      0.000s      0.000w      8 calls
HF: DIIS                    :      0.017u      0.000s      0.001w      8 calls
| DIISManager::add_entry    :      0.017u      0.000s      0.000w      7 calls
| DIISManager::extrapolate  :      0.000u      0.000s      0.000w      6 calls
| | DIISManager::extrapolate: bMatrix setup:      0.000u      0.000s      0.000w      6 calls
| | DIISManager::extrapolate: bMatrix pseudoinverse:      0.000u      0.000s      0.000w      6 calls
| | DIISManager::extrapolate: form new data:      0.000u      0.000s      0.000w      6 calls
HF: Form C                  :      0.000u      0.000s      0.000w      8 calls
HF: Form D                  :      0.000u      0.000s      0.000w      8 calls

***********************************************************

Host: DTSs-MacBook-Pro-2.local

Timers On : Wed Jul 26 15:37:14 2017
Timers Off: Wed Jul 26 15:37:14 2017

Wall Time:        0.28 seconds


-----------------------------------------------------------

***********************************************************

Host: DTSs-MacBook-Pro-2.local

Timers On : Wed Jul 26 15:38:51 2017
Timers Off: Wed Jul 26 15:38:51 2017

Wall Time:        0.73 seconds

Total PK formation time     :      0.033u      0.000s      0.023w      1 calls
HF: Form H                  :      0.000u      0.017s      0.003w      1 calls
HF: Form S/X                :      0.000u      0.000s      0.000w      1 calls
HF: Guess                   :      0.133u      0.000s      0.080w      1 calls
SAD Guess                   :      0.133u      0.000s      0.078w      1 calls
HF: Form G                  :      0.000u      0.000s      0.000w      8 calls
JK: D                       :      0.000u      0.000s      0.000w      8 calls
JK: USO2AO                  :      0.000u      0.000s      0.000w      8 calls
JK: JK                      :      0.000u      0.000s      0.000w      8 calls
PK computes JK              :      0.000u      0.000s      0.000w      8 calls
JK: AO2USO                  :      0.000u      0.000s      0.000w      8 calls
HF: Form F                  :      0.000u      0.000s      0.000w      8 calls
HF: DIIS                    :      0.000u      0.000s      0.001w      8 calls
DIISManager::add_entry      :      0.000u      0.000s      0.000w      7 calls
DIISManager::extrapolate    :      0.000u      0.000s      0.000w      6 calls
DIISManager::extrapolate: bMatrix setup:      0.000u      0.000s      0.000w      6 calls
DIISManager::extrapolate: bMatrix pseudoinverse:      0.000u      0.000s      0.000w      6 calls
DIISManager::extrapolate: form new data:      0.000u      0.000s      0.000w      6 calls
HF: Form C                  :      0.000u      0.000s      0.000w      8 calls
HF: Form D                  :      0.000u      0.000s      0.000w      8 calls

-----------------------------------------------------------
Total PK formation time     :      0.033u      0.000s      0.023w      1 calls
HF: Form H                  :      0.000u      0.017s      0.003w      1 calls
HF: Form S/X                :      0.000u      0.000s      0.000w      1 calls
HF: Guess                   :      0.133u      0.000s      0.080w      1 calls
| SAD Guess                 :      0.133u      0.000s      0.078w      1 calls
HF: Form G                  :      0.000u      0.000s      0.000w      8 calls
| JK: D                     :      0.000u      0.000s      0.000w      8 calls
| JK: USO2AO                :      0.000u      0.000s      0.000w      8 calls
| JK: JK                    :      0.000u      0.000s      0.000w      8 calls
| | PK computes JK          :      0.000u      0.000s      0.000w      8 calls
| JK: AO2USO                :      0.000u      0.000s      0.000w      8 calls
HF: Form F                  :      0.000u      0.000s      0.000w      8 calls
HF: DIIS                    :      0.000u      0.000s      0.001w      8 calls
| DIISManager::add_entry    :      0.000u      0.000s      0.000w      7 calls
| DIISManager::extrapolate  :      0.000u      0.000s      0.000w      6 calls
| | DIISManager::extrapolate: bMatrix setup:      0.000u      0.000s      0.000w      6 calls
| | DIISManager::extrapolate: bMatrix pseudoinverse:      0.000u      0.000s      0.000w      6 calls
| | DIISManager::extrapolate: form new data:      0.000u      0.000s      0.000w      6 calls
HF: Form C                  :      0.000u      0.000s      0.000w      8 calls
HF: Form D                  :      0.000u      0.000s      0.000w      8 calls

***********************************************************

Host: DTSs-MacBook-Pro-2.local

Timers On : Wed Jul 26 15:46:05 2017
Timers Off: Wed Jul 26 15:46:05 2017

Wall Time:        0.28 seconds


-----------------------------------------------------------

***********************************************************

Host: DTSs-MacBook-Pro-2.local

Timers On : Wed Jul 26 15:58:59 2017
Timers Off: Wed Jul 26 15:58:59 2017

Wall Time:        0.69 seconds

Total PK formation time     :      0.050u      0.000s      0.024w      1 calls
HF: Form H                  :      0.000u      0.000s      0.003w      1 calls
HF: Form S/X                :      0.000u      0.000s      0.000w      1 calls
HF: Guess                   :      0.133u      0.000s      0.079w      1 calls
SAD Guess                   :      0.133u      0.000s      0.076w      1 calls
HF: Form G                  :      0.000u      0.000s      0.000w      8 calls
JK: D                       :      0.000u      0.000s      0.000w      8 calls
JK: USO2AO                  :      0.000u      0.000s      0.000w      8 calls
JK: JK                      :      0.000u      0.000s      0.000w      8 calls
PK computes JK              :      0.000u      0.000s      0.000w      8 calls
JK: AO2USO                  :      0.000u      0.000s      0.000w      8 calls
HF: Form F                  :      0.000u      0.000s      0.000w      8 calls
HF: DIIS                    :      0.000u      0.000s      0.001w      8 calls
DIISManager::add_entry      :      0.000u      0.000s      0.000w      7 calls
DIISManager::extrapolate    :      0.000u      0.000s      0.000w      6 calls
DIISManager::extrapolate: bMatrix setup:      0.000u      0.000s      0.000w      6 calls
DIISManager::extrapolate: bMatrix pseudoinverse:      0.000u      0.000s      0.000w      6 calls
DIISManager::extrapolate: form new data:      0.000u      0.000s      0.000w      6 calls
HF: Form C                  :      0.000u      0.000s      0.000w      8 calls
HF: Form D                  :      0.000u      0.000s      0.000w      8 calls

-----------------------------------------------------------
Total PK formation time     :      0.050u      0.000s      0.024w      1 calls
HF: Form H                  :      0.000u      0.000s      0.003w      1 calls
HF: Form S/X                :      0.000u      0.000s      0.000w      1 calls
HF: Guess                   :      0.133u      0.000s      0.079w      1 calls
| SAD Guess                 :      0.133u      0.000s      0.076w      1 calls
HF: Form G                  :      0.000u      0.000s      0.000w      8 calls
| JK: D                     :      0.000u      0.000s      0.000w      8 calls
| JK: USO2AO                :      0.000u      0.000s      0.000w      8 calls
| JK: JK                    :      0.000u      0.000s      0.000w      8 calls
| | PK computes JK          :      0.000u      0.000s      0.000w      8 calls
| JK: AO2USO                :      0.000u      0.000s      0.000w      8 calls
HF: Form F                  :      0.000u      0.000s      0.000w      8 calls
HF: DIIS                    :      0.000u      0.000s      0.001w      8 calls
| DIISManager::add_entry    :      0.000u      0.000s      0.000w      7 calls
| DIISManager::extrapolate  :      0.000u      0.000s      0.000w      6 calls
| | DIISManager::extrapolate: bMatrix setup:      0.000u      0.000s      0.000w      6 calls
| | DIISManager::extrapolate: bMatrix pseudoinverse:      0.000u      0.000s      0.000w      6 calls
| | DIISManager::extrapolate: form new data:      0.000u      0.000s      0.000w      6 calls
HF: Form C                  :      0.000u      0.000s      0.000w      8 calls
HF: Form D                  :      0.000u      0.000s      0.000w      8 calls

***********************************************************

Host: DTSs-MacBook-Pro-2.local

Timers On : Wed Jul 26 16:56:32 2017
Timers Off: Wed Jul 26 16:56:38 2017

Wall Time:        6.53 seconds

Total PK formation time     :      0.050u      0.000s      0.039w      1 calls
HF: Form H                  :      0.000u      0.000s      0.003w      1 calls
HF: Form S/X                :      0.000u      0.000s      0.000w      1 calls
HF: Guess                   :      0.150u      0.000s      0.194w      1 calls
SAD Guess                   :      0.150u      0.000s      0.192w      1 calls
HF: Form G                  :      0.000u      0.000s      0.026w      8 calls
JK: D                       :      0.000u      0.000s      0.000w      8 calls
JK: USO2AO                  :      0.000u      0.000s      0.000w      8 calls
JK: JK                      :      0.000u      0.000s      0.026w      8 calls
PK computes JK              :      0.000u      0.000s      0.026w      8 calls
JK: AO2USO                  :      0.000u      0.000s      0.000w      8 calls
HF: Form F                  :      0.000u      0.000s      0.000w      8 calls
HF: DIIS                    :      0.000u      0.000s      0.002w      8 calls
DIISManager::add_entry      :      0.000u      0.000s      0.001w      7 calls
DIISManager::extrapolate    :      0.000u      0.000s      0.001w      6 calls
DIISManager::extrapolate: bMatrix setup:      0.000u      0.000s      0.000w      6 calls
DIISManager::extrapolate: bMatrix pseudoinverse:      0.000u      0.000s      0.000w      6 calls
DIISManager::extrapolate: form new data:      0.000u      0.000s      0.000w      6 calls
HF: Form C                  :      0.000u      0.000s      0.000w      8 calls
HF: Form D                  :      0.000u      0.000s      0.000w      8 calls

-----------------------------------------------------------
Total PK formation time     :      0.050u      0.000s      0.039w      1 calls
HF: Form H                  :      0.000u      0.000s      0.003w      1 calls
HF: Form S/X                :      0.000u      0.000s      0.000w      1 calls
HF: Guess                   :      0.150u      0.000s      0.194w      1 calls
| SAD Guess                 :      0.150u      0.000s      0.192w      1 calls
HF: Form G                  :      0.000u      0.000s      0.026w      8 calls
| JK: D                     :      0.000u      0.000s      0.000w      8 calls
| JK: USO2AO                :      0.000u      0.000s      0.000w      8 calls
| JK: JK                    :      0.000u      0.000s      0.026w      8 calls
| | PK computes JK          :      0.000u      0.000s      0.026w      8 calls
| JK: AO2USO                :      0.000u      0.000s      0.000w      8 calls
HF: Form F                  :      0.000u      0.000s      0.000w      8 calls
HF: DIIS                    :      0.000u      0.000s      0.002w      8 calls
| DIISManager::add_entry    :      0.000u      0.000s      0.001w      7 calls
| DIISManager::extrapolate  :      0.000u      0.000s      0.001w      6 calls
| | DIISManager::extrapolate: bMatrix setup:      0.000u      0.000s      0.000w      6 calls
| | DIISManager::extrapolate: bMatrix pseudoinverse:      0.000u      0.000s      0.000w      6 calls
| | DIISManager::extrapolate: form new data:      0.000u      0.000s      0.000w      6 calls
HF: Form C                  :      0.000u      0.000s      0.000w      8 calls
HF: Form D                  :      0.000u      0.000s      0.000w      8 calls

***********************************************************

Host: DTSs-MacBook-Pro-2.local

Timers On : Wed Jul 26 17:16:32 2017
Timers Off: Wed Jul 26 17:16:37 2017

Wall Time:        5.12 seconds


-----------------------------------------------------------

***********************************************************

Host: DTSs-MacBook-Pro-2.local

Timers On : Wed Jul 26 17:17:24 2017
Timers Off: Wed Jul 26 17:17:25 2017

Wall Time:        1.19 seconds

Total PK formation time     :      0.033u      0.000s      0.039w      1 calls
HF: Form H                  :      0.000u      0.000s      0.003w      1 calls
HF: Form S/X                :      0.000u      0.000s      0.000w      1 calls
HF: Guess                   :      0.150u      0.017s      0.185w      1 calls
SAD Guess                   :      0.133u      0.017s      0.183w      1 calls
HF: Form G                  :      0.000u      0.000s      0.001w      8 calls
JK: D                       :      0.000u      0.000s      0.000w      8 calls
JK: USO2AO                  :      0.000u      0.000s      0.000w      8 calls
JK: JK                      :      0.000u      0.000s      0.000w      8 calls
PK computes JK              :      0.000u      0.000s      0.000w      8 calls
JK: AO2USO                  :      0.000u      0.000s      0.000w      8 calls
HF: Form F                  :      0.000u      0.000s      0.000w      8 calls
HF: DIIS                    :      0.017u      0.000s      0.003w      8 calls
DIISManager::add_entry      :      0.000u      0.000s      0.001w      7 calls
DIISManager::extrapolate    :      0.000u      0.000s      0.001w      6 calls
DIISManager::extrapolate: bMatrix setup:      0.000u      0.000s      0.001w      6 calls
DIISManager::extrapolate: bMatrix pseudoinverse:      0.000u      0.000s      0.000w      6 calls
DIISManager::extrapolate: form new data:      0.000u      0.000s      0.000w      6 calls
HF: Form C                  :      0.000u      0.000s      0.001w      8 calls
HF: Form D                  :      0.000u      0.000s      0.000w      8 calls

-----------------------------------------------------------
Total PK formation time     :      0.033u      0.000s      0.039w      1 calls
HF: Form H                  :      0.000u      0.000s      0.003w      1 calls
HF: Form S/X                :      0.000u      0.000s      0.000w      1 calls
HF: Guess                   :      0.150u      0.017s      0.185w      1 calls
| SAD Guess                 :      0.133u      0.017s      0.183w      1 calls
HF: Form G                  :      0.000u      0.000s      0.001w      8 calls
| JK: D                     :      0.000u      0.000s      0.000w      8 calls
| JK: USO2AO                :      0.000u      0.000s      0.000w      8 calls
| JK: JK                    :      0.000u      0.000s      0.000w      8 calls
| | PK computes JK          :      0.000u      0.000s      0.000w      8 calls
| JK: AO2USO                :      0.000u      0.000s      0.000w      8 calls
HF: Form F                  :      0.000u      0.000s      0.000w      8 calls
HF: DIIS                    :      0.017u      0.000s      0.003w      8 calls
| DIISManager::add_entry    :      0.000u      0.000s      0.001w      7 calls
| DIISManager::extrapolate  :      0.000u      0.000s      0.001w      6 calls
| | DIISManager::extrapolate: bMatrix setup:      0.000u      0.000s      0.001w      6 calls
| | DIISManager::extrapolate: bMatrix pseudoinverse:      0.000u      0.000s      0.000w      6 calls
| | DIISManager::extrapolate: form new data:      0.000u      0.000s      0.000w      6 calls
HF: Form C                  :      0.000u      0.000s      0.001w      8 calls
HF: Form D                  :      0.000u      0.000s      0.000w      8 calls

***********************************************************

Host: DTSs-MacBook-Pro-2.local

Timers On : Wed Jul 26 17:18:02 2017
Timers Off: Wed Jul 26 17:18:03 2017

Wall Time:        0.93 seconds

Total PK formation time     :      0.050u      0.000s      0.022w      1 calls
HF: Form H                  :      0.000u      0.000s      0.031w      1 calls
HF: Form S/X                :      0.000u      0.000s      0.000w      1 calls
HF: Guess                   :      0.133u      0.000s      0.086w      1 calls
SAD Guess                   :      0.133u      0.000s      0.083w      1 calls
HF: Form G                  :      0.000u      0.000s      0.000w      8 calls
JK: D                       :      0.000u      0.000s      0.000w      8 calls
JK: USO2AO                  :      0.000u      0.000s      0.000w      8 calls
JK: JK                      :      0.000u      0.000s      0.000w      8 calls
PK computes JK              :      0.000u      0.000s      0.000w      8 calls
JK: AO2USO                  :      0.000u      0.000s      0.000w      8 calls
HF: Form F                  :      0.000u      0.000s      0.000w      8 calls
HF: DIIS                    :      0.000u      0.000s      0.001w      8 calls
DIISManager::add_entry      :      0.000u      0.000s      0.000w      7 calls
DIISManager::extrapolate    :      0.000u      0.000s      0.000w      6 calls
DIISManager::extrapolate: bMatrix setup:      0.000u      0.000s      0.000w      6 calls
DIISManager::extrapolate: bMatrix pseudoinverse:      0.000u      0.000s      0.000w      6 calls
DIISManager::extrapolate: form new data:      0.000u      0.000s      0.000w      6 calls
HF: Form C                  :      0.000u      0.000s      0.000w      8 calls
HF: Form D                  :      0.000u      0.000s      0.000w      8 calls

-----------------------------------------------------------
Total PK formation time     :      0.050u      0.000s      0.022w      1 calls
HF: Form H                  :      0.000u      0.000s      0.031w      1 calls
HF: Form S/X                :      0.000u      0.000s      0.000w      1 calls
HF: Guess                   :      0.133u      0.000s      0.086w      1 calls
| SAD Guess                 :      0.133u      0.000s      0.083w      1 calls
HF: Form G                  :      0.000u      0.000s      0.000w      8 calls
| JK: D                     :      0.000u      0.000s      0.000w      8 calls
| JK: USO2AO                :      0.000u      0.000s      0.000w      8 calls
| JK: JK                    :      0.000u      0.000s      0.000w      8 calls
| | PK computes JK          :      0.000u      0.000s      0.000w      8 calls
| JK: AO2USO                :      0.000u      0.000s      0.000w      8 calls
HF: Form F                  :      0.000u      0.000s      0.000w      8 calls
HF: DIIS                    :      0.000u      0.000s      0.001w      8 calls
| DIISManager::add_entry    :      0.000u      0.000s      0.000w      7 calls
| DIISManager::extrapolate  :      0.000u      0.000s      0.000w      6 calls
| | DIISManager::extrapolate: bMatrix setup:      0.000u      0.000s      0.000w      6 calls
| | DIISManager::extrapolate: bMatrix pseudoinverse:      0.000u      0.000s      0.000w      6 calls
| | DIISManager::extrapolate: form new data:      0.000u      0.000s      0.000w      6 calls
HF: Form C                  :      0.000u      0.000s      0.000w      8 calls
HF: Form D                  :      0.000u      0.000s      0.000w      8 calls

***********************************************************

Host: DTSs-MacBook-Pro-2.local

Timers On : Wed Jul 26 19:48:35 2017
Timers Off: Wed Jul 26 19:48:39 2017

Wall Time:        3.61 seconds


-----------------------------------------------------------

***********************************************************

Host: DTSs-MacBook-Pro-2.local

Timers On : Wed Jul 26 19:49:32 2017
Timers Off: Wed Jul 26 19:49:32 2017

Wall Time:        0.31 seconds


-----------------------------------------------------------

***********************************************************

Host: DTSs-MacBook-Pro-2.local

Timers On : Wed Jul 26 19:49:40 2017
Timers Off: Wed Jul 26 19:49:41 2017

Wall Time:        0.31 seconds


-----------------------------------------------------------

***********************************************************

Host: DTSs-MacBook-Pro-2.local

Timers On : Wed Jul 26 19:50:01 2017
Timers Off: Wed Jul 26 19:50:02 2017

Wall Time:        0.31 seconds


-----------------------------------------------------------

***********************************************************

Host: DTSs-MacBook-Pro-2.local

Timers On : Wed Jul 26 19:51:57 2017
Timers Off: Wed Jul 26 19:51:57 2017

Wall Time:        0.32 seconds


-----------------------------------------------------------

***********************************************************

Host: DTSs-MacBook-Pro-2.local

Timers On : Wed Jul 26 19:52:51 2017
Timers Off: Wed Jul 26 19:52:51 2017

Wall Time:        0.30 seconds


-----------------------------------------------------------

***********************************************************

Host: DTSs-MacBook-Pro-2.local

Timers On : Wed Jul 26 19:53:40 2017
Timers Off: Wed Jul 26 19:53:41 2017

Wall Time:        0.31 seconds


-----------------------------------------------------------

***********************************************************

Host: DTSs-MacBook-Pro-2.local

Timers On : Wed Jul 26 19:54:22 2017
Timers Off: Wed Jul 26 19:54:23 2017

Wall Time:        0.31 seconds


-----------------------------------------------------------

***********************************************************

Host: DTSs-MacBook-Pro-2.local

Timers On : Wed Jul 26 19:59:42 2017
Timers Off: Wed Jul 26 19:59:42 2017

Wall Time:        0.30 seconds


-----------------------------------------------------------

***********************************************************

Host: DTSs-MacBook-Pro-2.local

Timers On : Wed Jul 26 20:02:51 2017
Timers Off: Wed Jul 26 20:02:52 2017

Wall Time:        0.31 seconds


-----------------------------------------------------------

***********************************************************

Host: DTSs-MacBook-Pro-2.local

Timers On : Wed Jul 26 20:03:02 2017
Timers Off: Wed Jul 26 20:03:04 2017

Wall Time:        2.25 seconds

Total PK formation time     :      0.033u      0.000s      0.022w      1 calls
HF: Form H                  :      0.000u      0.000s      0.003w      1 calls
HF: Form S/X                :      0.000u      0.000s      0.000w      1 calls
HF: Guess                   :      0.150u      0.000s      0.179w      1 calls
SAD Guess                   :      0.150u      0.000s      0.176w      1 calls
HF: Form G                  :      0.000u      0.000s      0.000w      8 calls
JK: D                       :      0.000u      0.000s      0.000w      8 calls
JK: USO2AO                  :      0.000u      0.000s      0.000w      8 calls
JK: JK                      :      0.000u      0.000s      0.000w      8 calls
PK computes JK              :      0.000u      0.000s      0.000w      8 calls
JK: AO2USO                  :      0.000u      0.000s      0.000w      8 calls
HF: Form F                  :      0.000u      0.000s      0.000w      8 calls
HF: DIIS                    :      0.000u      0.000s      0.001w      8 calls
DIISManager::add_entry      :      0.000u      0.000s      0.000w      7 calls
DIISManager::extrapolate    :      0.000u      0.000s      0.000w      6 calls
DIISManager::extrapolate: bMatrix setup:      0.000u      0.000s      0.000w      6 calls
DIISManager::extrapolate: bMatrix pseudoinverse:      0.000u      0.000s      0.000w      6 calls
DIISManager::extrapolate: form new data:      0.000u      0.000s      0.000w      6 calls
HF: Form C                  :      0.000u      0.000s      0.000w      8 calls
HF: Form D                  :      0.000u      0.000s      0.000w      8 calls

-----------------------------------------------------------
Total PK formation time     :      0.033u      0.000s      0.022w      1 calls
HF: Form H                  :      0.000u      0.000s      0.003w      1 calls
HF: Form S/X                :      0.000u      0.000s      0.000w      1 calls
HF: Guess                   :      0.150u      0.000s      0.179w      1 calls
| SAD Guess                 :      0.150u      0.000s      0.176w      1 calls
HF: Form G                  :      0.000u      0.000s      0.000w      8 calls
| JK: D                     :      0.000u      0.000s      0.000w      8 calls
| JK: USO2AO                :      0.000u      0.000s      0.000w      8 calls
| JK: JK                    :      0.000u      0.000s      0.000w      8 calls
| | PK computes JK          :      0.000u      0.000s      0.000w      8 calls
| JK: AO2USO                :      0.000u      0.000s      0.000w      8 calls
HF: Form F                  :      0.000u      0.000s      0.000w      8 calls
HF: DIIS                    :      0.000u      0.000s      0.001w      8 calls
| DIISManager::add_entry    :      0.000u      0.000s      0.000w      7 calls
| DIISManager::extrapolate  :      0.000u      0.000s      0.000w      6 calls
| | DIISManager::extrapolate: bMatrix setup:      0.000u      0.000s      0.000w      6 calls
| | DIISManager::extrapolate: bMatrix pseudoinverse:      0.000u      0.000s      0.000w      6 calls
| | DIISManager::extrapolate: form new data:      0.000u      0.000s      0.000w      6 calls
HF: Form C                  :      0.000u      0.000s      0.000w      8 calls
HF: Form D                  :      0.000u      0.000s      0.000w      8 calls

***********************************************************

Host: DTSs-MacBook-Pro-2.local

Timers On : Wed Jul 26 20:03:41 2017
Timers Off: Wed Jul 26 20:03:43 2017

Wall Time:        2.04 seconds

Total PK formation time     :      0.050u      0.000s      0.025w      1 calls
HF: Form H                  :      0.000u      0.017s      0.003w      1 calls
HF: Form S/X                :      0.000u      0.000s      0.000w      1 calls
HF: Guess                   :      0.133u      0.000s      0.083w      1 calls
SAD Guess                   :      0.133u      0.000s      0.080w      1 calls
HF: Form G                  :      0.000u      0.000s      0.000w      8 calls
JK: D                       :      0.000u      0.000s      0.000w      8 calls
JK: USO2AO                  :      0.000u      0.000s      0.000w      8 calls
JK: JK                      :      0.000u      0.000s      0.000w      8 calls
PK computes JK              :      0.000u      0.000s      0.000w      8 calls
JK: AO2USO                  :      0.000u      0.000s      0.000w      8 calls
HF: Form F                  :      0.000u      0.000s      0.000w      8 calls
HF: DIIS                    :      0.000u      0.000s      0.001w      8 calls
DIISManager::add_entry      :      0.000u      0.000s      0.000w      7 calls
DIISManager::extrapolate    :      0.000u      0.000s      0.000w      6 calls
DIISManager::extrapolate: bMatrix setup:      0.000u      0.000s      0.000w      6 calls
DIISManager::extrapolate: bMatrix pseudoinverse:      0.000u      0.000s      0.000w      6 calls
DIISManager::extrapolate: form new data:      0.000u      0.000s      0.000w      6 calls
HF: Form C                  :      0.000u      0.000s      0.000w      8 calls
HF: Form D                  :      0.000u      0.000s      0.000w      8 calls

-----------------------------------------------------------
Total PK formation time     :      0.050u      0.000s      0.025w      1 calls
HF: Form H                  :      0.000u      0.017s      0.003w      1 calls
HF: Form S/X                :      0.000u      0.000s      0.000w      1 calls
HF: Guess                   :      0.133u      0.000s      0.083w      1 calls
| SAD Guess                 :      0.133u      0.000s      0.080w      1 calls
HF: Form G                  :      0.000u      0.000s      0.000w      8 calls
| JK: D                     :      0.000u      0.000s      0.000w      8 calls
| JK: USO2AO                :      0.000u      0.000s      0.000w      8 calls
| JK: JK                    :      0.000u      0.000s      0.000w      8 calls
| | PK computes JK          :      0.000u      0.000s      0.000w      8 calls
| JK: AO2USO                :      0.000u      0.000s      0.000w      8 calls
HF: Form F                  :      0.000u      0.000s      0.000w      8 calls
HF: DIIS                    :      0.000u      0.000s      0.001w      8 calls
| DIISManager::add_entry    :      0.000u      0.000s      0.000w      7 calls
| DIISManager::extrapolate  :      0.000u      0.000s      0.000w      6 calls
| | DIISManager::extrapolate: bMatrix setup:      0.000u      0.000s      0.000w      6 calls
| | DIISManager::extrapolate: bMatrix pseudoinverse:      0.000u      0.000s      0.000w      6 calls
| | DIISManager::extrapolate: form new data:      0.000u      0.000s      0.000w      6 calls
HF: Form C                  :      0.000u      0.000s      0.000w      8 calls
HF: Form D                  :      0.000u      0.000s      0.000w      8 calls

***********************************************************

Host: DTSs-MacBook-Pro-2.local

Timers On : Wed Jul 26 20:05:20 2017
Timers Off: Wed Jul 26 20:05:20 2017

Wall Time:        0.31 seconds


-----------------------------------------------------------

***********************************************************

Host: DTSs-MacBook-Pro-2.local

Timers On : Wed Jul 26 20:05:30 2017
Timers Off: Wed Jul 26 20:05:30 2017

Wall Time:        0.31 seconds


-----------------------------------------------------------

***********************************************************

Host: DTSs-MacBook-Pro-2.local

Timers On : Wed Jul 26 20:29:58 2017
Timers Off: Wed Jul 26 20:30:03 2017

Wall Time:        4.17 seconds


-----------------------------------------------------------

***********************************************************

Host: DTSs-MacBook-Pro-2.local

Timers On : Wed Jul 26 20:34:20 2017
Timers Off: Wed Jul 26 20:34:24 2017

Wall Time:        3.91 seconds


-----------------------------------------------------------

***********************************************************

Host: DTSs-MacBook-Pro-2.local

Timers On : Wed Jul 26 20:35:27 2017
Timers Off: Wed Jul 26 20:35:30 2017

Wall Time:        2.87 seconds


-----------------------------------------------------------

***********************************************************

Host: DTSs-MacBook-Pro-2.local

Timers On : Wed Jul 26 20:36:47 2017
Timers Off: Wed Jul 26 20:36:50 2017

Wall Time:        3.02 seconds


-----------------------------------------------------------

***********************************************************

Host: DTSs-MacBook-Pro-2.local

Timers On : Wed Jul 26 20:38:09 2017
Timers Off: Wed Jul 26 20:38:12 2017

Wall Time:        2.49 seconds

Total PK formation time     :      0.033u      0.000s      0.024w      1 calls
HF: Form H                  :      0.000u      0.000s      0.003w      1 calls
HF: Form S/X                :      0.000u      0.000s      0.000w      1 calls
HF: Guess                   :      0.150u      0.000s      0.147w      1 calls
SAD Guess                   :      0.133u      0.000s      0.144w      1 calls
HF: Form G                  :      0.000u      0.000s      0.017w      8 calls
JK: D                       :      0.000u      0.000s      0.000w      8 calls
JK: USO2AO                  :      0.000u      0.000s      0.000w      8 calls
JK: JK                      :      0.000u      0.000s      0.016w      8 calls
PK computes JK              :      0.000u      0.000s      0.016w      8 calls
JK: AO2USO                  :      0.000u      0.000s      0.000w      8 calls
HF: Form F                  :      0.000u      0.000s      0.000w      8 calls
HF: DIIS                    :      0.000u      0.000s      0.001w      8 calls
DIISManager::add_entry      :      0.000u      0.000s      0.001w      7 calls
DIISManager::extrapolate    :      0.000u      0.000s      0.001w      6 calls
DIISManager::extrapolate: bMatrix setup:      0.000u      0.000s      0.000w      6 calls
DIISManager::extrapolate: bMatrix pseudoinverse:      0.000u      0.000s      0.000w      6 calls
DIISManager::extrapolate: form new data:      0.000u      0.000s      0.000w      6 calls
HF: Form C                  :      0.000u      0.000s      0.000w      8 calls
HF: Form D                  :      0.000u      0.000s      0.000w      8 calls

-----------------------------------------------------------
Total PK formation time     :      0.033u      0.000s      0.024w      1 calls
HF: Form H                  :      0.000u      0.000s      0.003w      1 calls
HF: Form S/X                :      0.000u      0.000s      0.000w      1 calls
HF: Guess                   :      0.150u      0.000s      0.147w      1 calls
| SAD Guess                 :      0.133u      0.000s      0.144w      1 calls
HF: Form G                  :      0.000u      0.000s      0.017w      8 calls
| JK: D                     :      0.000u      0.000s      0.000w      8 calls
| JK: USO2AO                :      0.000u      0.000s      0.000w      8 calls
| JK: JK                    :      0.000u      0.000s      0.016w      8 calls
| | PK computes JK          :      0.000u      0.000s      0.016w      8 calls
| JK: AO2USO                :      0.000u      0.000s      0.000w      8 calls
HF: Form F                  :      0.000u      0.000s      0.000w      8 calls
HF: DIIS                    :      0.000u      0.000s      0.001w      8 calls
| DIISManager::add_entry    :      0.000u      0.000s      0.001w      7 calls
| DIISManager::extrapolate  :      0.000u      0.000s      0.001w      6 calls
| | DIISManager::extrapolate: bMatrix setup:      0.000u      0.000s      0.000w      6 calls
| | DIISManager::extrapolate: bMatrix pseudoinverse:      0.000u      0.000s      0.000w      6 calls
| | DIISManager::extrapolate: form new data:      0.000u      0.000s      0.000w      6 calls
HF: Form C                  :      0.000u      0.000s      0.000w      8 calls
HF: Form D                  :      0.000u      0.000s      0.000w      8 calls

***********************************************************

Host: DTSs-MacBook-Pro-2.local

Timers On : Wed Jul 26 20:40:41 2017
Timers Off: Wed Jul 26 20:40:43 2017

Wall Time:        2.35 seconds

Total PK formation time     :      0.033u      0.000s      0.024w      1 calls
HF: Form H                  :      0.000u      0.050s      0.026w      1 calls
HF: Form S/X                :      0.000u      0.000s      0.000w      1 calls
HF: Guess                   :      0.150u      0.000s      0.089w      1 calls
SAD Guess                   :      0.150u      0.000s      0.087w      1 calls
HF: Form G                  :      0.000u      0.000s      0.001w      8 calls
JK: D                       :      0.000u      0.000s      0.000w      8 calls
JK: USO2AO                  :      0.000u      0.000s      0.000w      8 calls
JK: JK                      :      0.000u      0.000s      0.000w      8 calls
PK computes JK              :      0.000u      0.000s      0.000w      8 calls
JK: AO2USO                  :      0.000u      0.000s      0.000w      8 calls
HF: Form F                  :      0.000u      0.000s      0.000w      8 calls
HF: DIIS                    :      0.000u      0.000s      0.006w      8 calls
DIISManager::add_entry      :      0.000u      0.000s      0.005w      7 calls
DIISManager::extrapolate    :      0.000u      0.000s      0.001w      6 calls
DIISManager::extrapolate: bMatrix setup:      0.000u      0.000s      0.000w      6 calls
DIISManager::extrapolate: bMatrix pseudoinverse:      0.000u      0.000s      0.000w      6 calls
DIISManager::extrapolate: form new data:      0.000u      0.000s      0.000w      6 calls
HF: Form C                  :      0.000u      0.000s      0.000w      8 calls
HF: Form D                  :      0.000u      0.000s      0.000w      8 calls

-----------------------------------------------------------
Total PK formation time     :      0.033u      0.000s      0.024w      1 calls
HF: Form H                  :      0.000u      0.050s      0.026w      1 calls
HF: Form S/X                :      0.000u      0.000s      0.000w      1 calls
HF: Guess                   :      0.150u      0.000s      0.089w      1 calls
| SAD Guess                 :      0.150u      0.000s      0.087w      1 calls
HF: Form G                  :      0.000u      0.000s      0.001w      8 calls
| JK: D                     :      0.000u      0.000s      0.000w      8 calls
| JK: USO2AO                :      0.000u      0.000s      0.000w      8 calls
| JK: JK                    :      0.000u      0.000s      0.000w      8 calls
| | PK computes JK          :      0.000u      0.000s      0.000w      8 calls
| JK: AO2USO                :      0.000u      0.000s      0.000w      8 calls
HF: Form F                  :      0.000u      0.000s      0.000w      8 calls
HF: DIIS                    :      0.000u      0.000s      0.006w      8 calls
| DIISManager::add_entry    :      0.000u      0.000s      0.005w      7 calls
| DIISManager::extrapolate  :      0.000u      0.000s      0.001w      6 calls
| | DIISManager::extrapolate: bMatrix setup:      0.000u      0.000s      0.000w      6 calls
| | DIISManager::extrapolate: bMatrix pseudoinverse:      0.000u      0.000s      0.000w      6 calls
| | DIISManager::extrapolate: form new data:      0.000u      0.000s      0.000w      6 calls
HF: Form C                  :      0.000u      0.000s      0.000w      8 calls
HF: Form D                  :      0.000u      0.000s      0.000w      8 calls

***********************************************************

Host: DTSs-MacBook-Pro-2.local

Timers On : Wed Jul 26 20:42:24 2017
Timers Off: Wed Jul 26 20:42:26 2017

Wall Time:        1.80 seconds


-----------------------------------------------------------

***********************************************************

Host: DTSs-MacBook-Pro-2.local

Timers On : Wed Jul 26 20:44:07 2017
Timers Off: Wed Jul 26 20:44:09 2017

Wall Time:        1.89 seconds


-----------------------------------------------------------

***********************************************************

Host: DTSs-MacBook-Pro-2.local

Timers On : Wed Jul 26 20:45:53 2017
Timers Off: Wed Jul 26 20:45:54 2017

Wall Time:        1.21 seconds


-----------------------------------------------------------

***********************************************************

Host: DTSs-MacBook-Pro-2.local

Timers On : Wed Jul 26 20:47:50 2017
Timers Off: Wed Jul 26 20:47:52 2017

Wall Time:        1.78 seconds


-----------------------------------------------------------

***********************************************************

Host: DTSs-MacBook-Pro-2.local

Timers On : Wed Jul 26 20:48:04 2017
Timers Off: Wed Jul 26 20:48:05 2017

Wall Time:        1.92 seconds


-----------------------------------------------------------

***********************************************************

Host: DTSs-MacBook-Pro-2.local

Timers On : Wed Jul 26 20:49:55 2017
Timers Off: Wed Jul 26 20:49:57 2017

Wall Time:        1.79 seconds


-----------------------------------------------------------

***********************************************************

Host: DTSs-MacBook-Pro-2.local

Timers On : Wed Jul 26 20:50:33 2017
Timers Off: Wed Jul 26 20:50:35 2017

Wall Time:        2.20 seconds

Total PK formation time     :      0.050u      0.000s      0.024w      1 calls
HF: Form H                  :      0.000u      0.000s      0.003w      1 calls
HF: Form S/X                :      0.000u      0.000s      0.000w      1 calls
HF: Guess                   :      0.133u      0.000s      0.084w      1 calls
SAD Guess                   :      0.133u      0.000s      0.081w      1 calls
HF: Form G                  :      0.000u      0.000s      0.000w      8 calls
JK: D                       :      0.000u      0.000s      0.000w      8 calls
JK: USO2AO                  :      0.000u      0.000s      0.000w      8 calls
JK: JK                      :      0.000u      0.000s      0.000w      8 calls
PK computes JK              :      0.000u      0.000s      0.000w      8 calls
JK: AO2USO                  :      0.000u      0.000s      0.000w      8 calls
HF: Form F                  :      0.000u      0.000s      0.000w      8 calls
HF: DIIS                    :      0.000u      0.017s      0.001w      8 calls
DIISManager::add_entry      :      0.000u      0.017s      0.001w      7 calls
DIISManager::extrapolate    :      0.000u      0.000s      0.000w      6 calls
DIISManager::extrapolate: bMatrix setup:      0.000u      0.000s      0.000w      6 calls
DIISManager::extrapolate: bMatrix pseudoinverse:      0.000u      0.000s      0.000w      6 calls
DIISManager::extrapolate: form new data:      0.000u      0.000s      0.000w      6 calls
HF: Form C                  :      0.000u      0.000s      0.000w      8 calls
HF: Form D                  :      0.000u      0.000s      0.000w      8 calls

-----------------------------------------------------------
Total PK formation time     :      0.050u      0.000s      0.024w      1 calls
HF: Form H                  :      0.000u      0.000s      0.003w      1 calls
HF: Form S/X                :      0.000u      0.000s      0.000w      1 calls
HF: Guess                   :      0.133u      0.000s      0.084w      1 calls
| SAD Guess                 :      0.133u      0.000s      0.081w      1 calls
HF: Form G                  :      0.000u      0.000s      0.000w      8 calls
| JK: D                     :      0.000u      0.000s      0.000w      8 calls
| JK: USO2AO                :      0.000u      0.000s      0.000w      8 calls
| JK: JK                    :      0.000u      0.000s      0.000w      8 calls
| | PK computes JK          :      0.000u      0.000s      0.000w      8 calls
| JK: AO2USO                :      0.000u      0.000s      0.000w      8 calls
HF: Form F                  :      0.000u      0.000s      0.000w      8 calls
HF: DIIS                    :      0.000u      0.017s      0.001w      8 calls
| DIISManager::add_entry    :      0.000u      0.017s      0.001w      7 calls
| DIISManager::extrapolate  :      0.000u      0.000s      0.000w      6 calls
| | DIISManager::extrapolate: bMatrix setup:      0.000u      0.000s      0.000w      6 calls
| | DIISManager::extrapolate: bMatrix pseudoinverse:      0.000u      0.000s      0.000w      6 calls
| | DIISManager::extrapolate: form new data:      0.000u      0.000s      0.000w      6 calls
HF: Form C                  :      0.000u      0.000s      0.000w      8 calls
HF: Form D                  :      0.000u      0.000s      0.000w      8 calls

***********************************************************

Host: DTSs-MacBook-Pro-2.local

Timers On : Wed Jul 26 20:52:29 2017
Timers Off: Wed Jul 26 20:52:33 2017

Wall Time:        3.72 seconds

Total PK formation time     :      0.050u      0.000s      0.025w      1 calls
HF: Form H                  :      0.000u      0.000s      0.004w      1 calls
HF: Form S/X                :      0.000u      0.000s      0.000w      1 calls
HF: Guess                   :      0.133u      0.000s      0.082w      1 calls
SAD Guess                   :      0.133u      0.000s      0.079w      1 calls
HF: Form G                  :      0.000u      0.000s      0.000w      8 calls
JK: D                       :      0.000u      0.000s      0.000w      8 calls
JK: USO2AO                  :      0.000u      0.000s      0.000w      8 calls
JK: JK                      :      0.000u      0.000s      0.000w      8 calls
PK computes JK              :      0.000u      0.000s      0.000w      8 calls
JK: AO2USO                  :      0.000u      0.000s      0.000w      8 calls
HF: Form F                  :      0.000u      0.000s      0.000w      8 calls
HF: DIIS                    :      0.000u      0.000s      0.001w      8 calls
DIISManager::add_entry      :      0.000u      0.000s      0.001w      7 calls
DIISManager::extrapolate    :      0.000u      0.000s      0.000w      6 calls
DIISManager::extrapolate: bMatrix setup:      0.000u      0.000s      0.000w      6 calls
DIISManager::extrapolate: bMatrix pseudoinverse:      0.000u      0.000s      0.000w      6 calls
DIISManager::extrapolate: form new data:      0.000u      0.000s      0.000w      6 calls
HF: Form C                  :      0.000u      0.000s      0.000w      8 calls
HF: Form D                  :      0.000u      0.000s      0.000w      8 calls

-----------------------------------------------------------
Total PK formation time     :      0.050u      0.000s      0.025w      1 calls
HF: Form H                  :      0.000u      0.000s      0.004w      1 calls
HF: Form S/X                :      0.000u      0.000s      0.000w      1 calls
HF: Guess                   :      0.133u      0.000s      0.082w      1 calls
| SAD Guess                 :      0.133u      0.000s      0.079w      1 calls
HF: Form G                  :      0.000u      0.000s      0.000w      8 calls
| JK: D                     :      0.000u      0.000s      0.000w      8 calls
| JK: USO2AO                :      0.000u      0.000s      0.000w      8 calls
| JK: JK                    :      0.000u      0.000s      0.000w      8 calls
| | PK computes JK          :      0.000u      0.000s      0.000w      8 calls
| JK: AO2USO                :      0.000u      0.000s      0.000w      8 calls
HF: Form F                  :      0.000u      0.000s      0.000w      8 calls
HF: DIIS                    :      0.000u      0.000s      0.001w      8 calls
| DIISManager::add_entry    :      0.000u      0.000s      0.001w      7 calls
| DIISManager::extrapolate  :      0.000u      0.000s      0.000w      6 calls
| | DIISManager::extrapolate: bMatrix setup:      0.000u      0.000s      0.000w      6 calls
| | DIISManager::extrapolate: bMatrix pseudoinverse:      0.000u      0.000s      0.000w      6 calls
| | DIISManager::extrapolate: form new data:      0.000u      0.000s      0.000w      6 calls
HF: Form C                  :      0.000u      0.000s      0.000w      8 calls
HF: Form D                  :      0.000u      0.000s      0.000w      8 calls

***********************************************************

Host: DTSs-MacBook-Pro-2.local

Timers On : Wed Jul 26 20:54:33 2017
Timers Off: Wed Jul 26 20:54:35 2017

Wall Time:        2.33 seconds

Total PK formation time     :      0.033u      0.000s      0.024w      1 calls
HF: Form H                  :      0.000u      0.000s      0.004w      1 calls
HF: Form S/X                :      0.000u      0.000s      0.000w      1 calls
HF: Guess                   :      0.133u      0.017s      0.099w      1 calls
SAD Guess                   :      0.133u      0.017s      0.096w      1 calls
HF: Form G                  :      0.017u      0.000s      0.001w      8 calls
JK: D                       :      0.000u      0.000s      0.000w      8 calls
JK: USO2AO                  :      0.017u      0.000s      0.000w      8 calls
JK: JK                      :      0.000u      0.000s      0.000w      8 calls
PK computes JK              :      0.000u      0.000s      0.000w      8 calls
JK: AO2USO                  :      0.000u      0.000s      0.000w      8 calls
HF: Form F                  :      0.000u      0.000s      0.000w      8 calls
HF: DIIS                    :      0.000u      0.000s      0.002w      8 calls
DIISManager::add_entry      :      0.000u      0.000s      0.001w      7 calls
DIISManager::extrapolate    :      0.000u      0.000s      0.001w      6 calls
DIISManager::extrapolate: bMatrix setup:      0.000u      0.000s      0.000w      6 calls
DIISManager::extrapolate: bMatrix pseudoinverse:      0.000u      0.000s      0.000w      6 calls
DIISManager::extrapolate: form new data:      0.000u      0.000s      0.000w      6 calls
HF: Form C                  :      0.000u      0.000s      0.000w      8 calls
HF: Form D                  :      0.000u      0.000s      0.000w      8 calls

-----------------------------------------------------------
Total PK formation time     :      0.033u      0.000s      0.024w      1 calls
HF: Form H                  :      0.000u      0.000s      0.004w      1 calls
HF: Form S/X                :      0.000u      0.000s      0.000w      1 calls
HF: Guess                   :      0.133u      0.017s      0.099w      1 calls
| SAD Guess                 :      0.133u      0.017s      0.096w      1 calls
HF: Form G                  :      0.017u      0.000s      0.001w      8 calls
| JK: D                     :      0.000u      0.000s      0.000w      8 calls
| JK: USO2AO                :      0.017u      0.000s      0.000w      8 calls
| JK: JK                    :      0.000u      0.000s      0.000w      8 calls
| | PK computes JK          :      0.000u      0.000s      0.000w      8 calls
| JK: AO2USO                :      0.000u      0.000s      0.000w      8 calls
HF: Form F                  :      0.000u      0.000s      0.000w      8 calls
HF: DIIS                    :      0.000u      0.000s      0.002w      8 calls
| DIISManager::add_entry    :      0.000u      0.000s      0.001w      7 calls
| DIISManager::extrapolate  :      0.000u      0.000s      0.001w      6 calls
| | DIISManager::extrapolate: bMatrix setup:      0.000u      0.000s      0.000w      6 calls
| | DIISManager::extrapolate: bMatrix pseudoinverse:      0.000u      0.000s      0.000w      6 calls
| | DIISManager::extrapolate: form new data:      0.000u      0.000s      0.000w      6 calls
HF: Form C                  :      0.000u      0.000s      0.000w      8 calls
HF: Form D                  :      0.000u      0.000s      0.000w      8 calls

***********************************************************

Host: DTSs-MacBook-Pro-2.local

Timers On : Wed Jul 26 20:55:10 2017
Timers Off: Wed Jul 26 20:55:12 2017

Wall Time:        2.24 seconds

Total PK formation time     :      0.033u      0.000s      0.022w      1 calls
HF: Form H                  :      0.000u      0.017s      0.003w      1 calls
HF: Form S/X                :      0.000u      0.000s      0.000w      1 calls
HF: Guess                   :      0.133u      0.000s      0.086w      1 calls
SAD Guess                   :      0.133u      0.000s      0.083w      1 calls
HF: Form G                  :      0.000u      0.000s      0.000w      8 calls
JK: D                       :      0.000u      0.000s      0.000w      8 calls
JK: USO2AO                  :      0.000u      0.000s      0.000w      8 calls
JK: JK                      :      0.000u      0.000s      0.000w      8 calls
PK computes JK              :      0.000u      0.000s      0.000w      8 calls
JK: AO2USO                  :      0.000u      0.000s      0.000w      8 calls
HF: Form F                  :      0.000u      0.000s      0.000w      8 calls
HF: DIIS                    :      0.000u      0.000s      0.001w      8 calls
DIISManager::add_entry      :      0.000u      0.000s      0.000w      7 calls
DIISManager::extrapolate    :      0.000u      0.000s      0.000w      6 calls
DIISManager::extrapolate: bMatrix setup:      0.000u      0.000s      0.000w      6 calls
DIISManager::extrapolate: bMatrix pseudoinverse:      0.000u      0.000s      0.000w      6 calls
[...]
DIISManager::add_entry      :      0.000u      0.000s      0.001w      7 calls
DIISManager::extrapolate    :      0.000u      0.000s      0.001w      6 calls
DIISManager::extrapolate: bMatrix setup:      0.000u      0.000s      0.000w      6 calls
DIISManager::extrapolate: bMatrix pseudoinverse:      0.000u      0.000s      0.000w      6 calls
DIISManager::extrapolate: form new data:      0.000u      0.000s      0.000w      6 calls
HF: Form C                  :      0.000u      0.000s      0.017w      8 calls
HF: Form D                  :      0.000u      0.000s      0.000w      8 calls

-----------------------------------------------------------
Total PK formation time     :      0.050u      0.000s      0.042w      1 calls
HF: Form H                  :      0.000u      0.000s      0.041w      1 calls
HF: Form S/X                :      0.000u      0.000s      0.016w      1 calls
HF: Guess                   :      0.150u      0.017s      0.433w      1 calls
| SAD Guess                 :      0.150u      0.017s      0.415w      1 calls
HF: Form G                  :      0.000u      0.000s      0.040w      8 calls
| JK: D                     :      0.000u      0.000s      0.000w      8 calls
| JK: USO2AO                :      0.000u      0.000s      0.014w      8 calls
| JK: JK                    :      0.000u      0.000s      0.007w      8 calls
| | PK computes JK          :      0.000u      0.000s      0.007w      8 calls
| JK: AO2USO                :      0.000u      0.000s      0.000w      8 calls
HF: Form F                  :      0.000u      0.000s      0.000w      8 calls
HF: DIIS                    :      0.017u      0.000s      0.002w      8 calls
| DIISManager::add_entry    :      0.000u      0.000s      0.001w      7 calls
| DIISManager::extrapolate  :      0.000u      0.000s      0.001w      6 calls
| | DIISManager::extrapolate: bMatrix setup:      0.000u      0.000s      0.000w      6 calls
| | DIISManager::extrapolate: bMatrix pseudoinverse:      0.000u      0.000s      0.000w      6 calls
| | DIISManager::extrapolate: form new data:      0.000u      0.000s      0.000w      6 calls
HF: Form C                  :      0.000u      0.000s      0.017w      8 calls
HF: Form D                  :      0.000u      0.000s      0.000w      8 calls

***********************************************************

Host: DTSs-MacBook-Pro-2.local

Timers On : Wed Jul 26 20:58:27 2017
Timers Off: Wed Jul 26 20:58:29 2017

Wall Time:        2.38 seconds

Total PK formation time     :      0.033u      0.000s      0.023w      1 calls
HF: Form H                  :      0.000u      0.000s      0.003w      1 calls
HF: Form S/X                :      0.000u      0.000s      0.000w      1 calls
HF: Guess                   :      0.150u      0.000s      0.088w      1 calls
SAD Guess                   :      0.133u      0.000s      0.085w      1 calls
HF: Form G                  :      0.000u      0.000s      0.001w      8 calls
JK: D                       :      0.000u      0.000s      0.000w      8 calls
JK: USO2AO                  :      0.000u      0.000s      0.000w      8 calls
JK: JK                      :      0.000u      0.000s      0.000w      8 calls
PK computes JK              :      0.000u      0.000s      0.000w      8 calls
JK: AO2USO                  :      0.000u      0.000s      0.000w      8 calls
HF: Form F                  :      0.000u      0.000s      0.000w      8 calls
HF: DIIS                    :      0.000u      0.000s      0.001w      8 calls
DIISManager::add_entry      :      0.000u      0.000s      0.001w      7 calls
DIISManager::extrapolate    :      0.000u      0.000s      0.000w      6 calls
DIISManager::extrapolate: bMatrix setup:      0.000u      0.000s      0.000w      6 calls
DIISManager::extrapolate: bMatrix pseudoinverse:      0.000u      0.000s      0.000w      6 calls
DIISManager::extrapolate: form new data:      0.000u      0.000s      0.000w      6 calls
HF: Form C                  :      0.000u      0.000s      0.000w      8 calls
HF: Form D                  :      0.000u      0.000s      0.000w      8 calls

-----------------------------------------------------------
Total PK formation time     :      0.033u      0.000s      0.023w      1 calls
HF: Form H                  :      0.000u      0.000s      0.003w      1 calls
HF: Form S/X                :      0.000u      0.000s      0.000w      1 calls
HF: Guess                   :      0.150u      0.000s      0.088w      1 calls
| SAD Guess                 :      0.133u      0.000s      0.085w      1 calls
HF: Form G                  :      0.000u      0.000s      0.001w      8 calls
| JK: D                     :      0.000u      0.000s      0.000w      8 calls
| JK: USO2AO                :      0.000u      0.000s      0.000w      8 calls
| JK: JK                    :      0.000u      0.000s      0.000w      8 calls
| | PK computes JK          :      0.000u      0.000s      0.000w      8 calls
| JK: AO2USO                :      0.000u      0.000s      0.000w      8 calls
HF: Form F                  :      0.000u      0.000s      0.000w      8 calls
HF: DIIS                    :      0.000u      0.000s      0.001w      8 calls
| DIISManager::add_entry    :      0.000u      0.000s      0.001w      7 calls
| DIISManager::extrapolate  :      0.000u      0.000s      0.000w      6 calls
| | DIISManager::extrapolate: bMatrix setup:      0.000u      0.000s      0.000w      6 calls
| | DIISManager::extrapolate: bMatrix pseudoinverse:      0.000u      0.000s      0.000w      6 calls
| | DIISManager::extrapolate: form new data:      0.000u      0.000s      0.000w      6 calls
HF: Form C                  :      0.000u      0.000s      0.000w      8 calls
HF: Form D                  :      0.000u      0.000s      0.000w      8 calls

***********************************************************

Host: DTSs-MacBook-Pro-2.local

Timers On : Wed Jul 26 20:59:24 2017
Timers Off: Wed Jul 26 20:59:27 2017

Wall Time:        2.63 seconds

Total PK formation time     :      0.033u      0.000s      0.025w      1 calls
HF: Form H                  :      0.000u      0.000s      0.007w      1 calls
HF: Form S/X                :      0.000u      0.000s      0.000w      1 calls
HF: Guess                   :      0.150u      0.000s      0.086w      1 calls
SAD Guess                   :      0.133u      0.000s      0.084w      1 calls
HF: Form G                  :      0.000u      0.000s      0.000w      8 calls
JK: D                       :      0.000u      0.000s      0.000w      8 calls
JK: USO2AO                  :      0.000u      0.000s      0.000w      8 calls
JK: JK                      :      0.000u      0.000s      0.000w      8 calls
PK computes JK              :      0.000u      0.000s      0.000w      8 calls
JK: AO2USO                  :      0.000u      0.000s      0.000w      8 calls
HF: Form F                  :      0.000u      0.000s      0.000w      8 calls
HF: DIIS                    :      0.000u      0.000s      0.001w      8 calls
DIISManager::add_entry      :      0.000u      0.000s      0.001w      7 calls
DIISManager::extrapolate    :      0.000u      0.000s      0.000w      6 calls
DIISManager::extrapolate: bMatrix setup:      0.000u      0.000s      0.000w      6 calls
DIISManager::extrapolate: bMatrix pseudoinverse:      0.000u      0.000s      0.000w      6 calls
DIISManager::extrapolate: form new data:      0.000u      0.000s      0.000w      6 calls
HF: Form C                  :      0.000u      0.000s      0.000w      8 calls
HF: Form D                  :      0.000u      0.000s      0.000w      8 calls

-----------------------------------------------------------
Total PK formation time     :      0.033u      0.000s      0.025w      1 calls
HF: Form H                  :      0.000u      0.000s      0.007w      1 calls
HF: Form S/X                :      0.000u      0.000s      0.000w      1 calls
HF: Guess                   :      0.150u      0.000s      0.086w      1 calls
| SAD Guess                 :      0.133u      0.000s      0.084w      1 calls
HF: Form G                  :      0.000u      0.000s      0.000w      8 calls
| JK: D                     :      0.000u      0.000s      0.000w      8 calls
| JK: USO2AO                :      0.000u      0.000s      0.000w      8 calls
| JK: JK                    :      0.000u      0.000s      0.000w      8 calls
| | PK computes JK          :      0.000u      0.000s      0.000w      8 calls
| JK: AO2USO                :      0.000u      0.000s      0.000w      8 calls
HF: Form F                  :      0.000u      0.000s      0.000w      8 calls
HF: DIIS                    :      0.000u      0.000s      0.001w      8 calls
| DIISManager::add_entry    :      0.000u      0.000s      0.001w      7 calls
| DIISManager::extrapolate  :      0.000u      0.000s      0.000w      6 calls
| | DIISManager::extrapolate: bMatrix setup:      0.000u      0.000s      0.000w      6 calls
| | DIISManager::extrapolate: bMatrix pseudoinverse:      0.000u      0.000s      0.000w      6 calls
| | DIISManager::extrapolate: form new data:      0.000u      0.000s      0.000w      6 calls
HF: Form C                  :      0.000u      0.000s      0.000w      8 calls
HF: Form D                  :      0.000u      0.000s      0.000w      8 calls

***********************************************************

Host: DTSs-MacBook-Pro-2.local

Timers On : Wed Jul 26 21:14:57 2017
Timers Off: Wed Jul 26 21:15:04 2017

Wall Time:        6.80 seconds

Total PK formation time     :      0.033u      0.000s      0.024w      1 calls
HF: Form H                  :      0.000u      0.000s      0.003w      1 calls
HF: Form S/X                :      0.000u      0.000s      0.000w      1 calls
HF: Guess                   :      0.150u      0.000s      0.185w      1 calls
SAD Guess                   :      0.133u      0.000s      0.183w      1 calls
HF: Form G                  :      0.000u      0.000s      0.028w      8 calls
JK: D                       :      0.000u      0.000s      0.000w      8 calls
JK: USO2AO                  :      0.000u      0.000s      0.000w      8 calls
JK: JK                      :      0.000u      0.000s      0.011w      8 calls
PK computes JK              :      0.000u      0.000s      0.011w      8 calls
JK: AO2USO                  :      0.000u      0.000s      0.000w      8 calls
HF: Form F                  :      0.000u      0.000s      0.000w      8 calls
HF: DIIS                    :      0.000u      0.017s      0.002w      8 calls
DIISManager::add_entry      :      0.000u      0.017s      0.001w      7 calls
DIISManager::extrapolate    :      0.000u      0.000s      0.001w      6 calls
DIISManager::extrapolate: bMatrix setup:      0.000u      0.000s      0.000w      6 calls
DIISManager::extrapolate: bMatrix pseudoinverse:      0.000u      0.000s      0.000w      6 calls
DIISManager::extrapolate: form new data:      0.000u      0.000s      0.000w      6 calls
HF: Form C                  :      0.000u      0.000s      0.000w      8 calls
HF: Form D                  :      0.000u      0.000s      0.000w      8 calls

-----------------------------------------------------------
Total PK formation time     :      0.033u      0.000s      0.024w      1 calls
HF: Form H                  :      0.000u      0.000s      0.003w      1 calls
HF: Form S/X                :      0.000u      0.000s      0.000w      1 calls
HF: Guess                   :      0.150u      0.000s      0.185w      1 calls
| SAD Guess                 :      0.133u      0.000s      0.183w      1 calls
HF: Form G                  :      0.000u      0.000s      0.028w      8 calls
| JK: D                     :      0.000u      0.000s      0.000w      8 calls
| JK: USO2AO                :      0.000u      0.000s      0.000w      8 calls
| JK: JK                    :      0.000u      0.000s      0.011w      8 calls
| | PK computes JK          :      0.000u      0.000s      0.011w      8 calls
| JK: AO2USO                :      0.000u      0.000s      0.000w      8 calls
HF: Form F                  :      0.000u      0.000s      0.000w      8 calls
HF: DIIS                    :      0.000u      0.017s      0.002w      8 calls
| DIISManager::add_entry    :      0.000u      0.017s      0.001w      7 calls
| DIISManager::extrapolate  :      0.000u      0.000s      0.001w      6 calls
| | DIISManager::extrapolate: bMatrix setup:      0.000u      0.000s      0.000w      6 calls
| | DIISManager::extrapolate: bMatrix pseudoinverse:      0.000u      0.000s      0.000w      6 calls
| | DIISManager::extrapolate: form new data:      0.000u      0.000s      0.000w      6 calls
HF: Form C                  :      0.000u      0.000s      0.000w      8 calls
HF: Form D                  :      0.000u      0.000s      0.000w      8 calls

***********************************************************

Host: DTSs-MacBook-Pro-2.local

Timers On : Wed Jul 26 21:21:13 2017
Timers Off: Wed Jul 26 21:21:20 2017

Wall Time:        6.73 seconds

Total PK formation time     :      0.050u      0.000s      0.048w      1 calls
HF: Form H                  :      0.000u      0.000s      0.004w      1 calls
HF: Form S/X                :      0.000u      0.000s      0.000w      1 calls
HF: Guess                   :      0.150u      0.017s      0.159w      1 calls
SAD Guess                   :      0.150u      0.017s      0.155w      1 calls
HF: Form G                  :      0.000u      0.000s      0.025w      8 calls
JK: D                       :      0.000u      0.000s      0.000w      8 calls
JK: USO2AO                  :      0.000u      0.000s      0.000w      8 calls
JK: JK                      :      0.000u      0.000s      0.024w      8 calls
PK computes JK              :      0.000u      0.000s      0.024w      8 calls
JK: AO2USO                  :      0.000u      0.000s      0.000w      8 calls
HF: Form F                  :      0.000u      0.000s      0.000w      8 calls
HF: DIIS                    :      0.000u      0.000s      0.001w      8 calls
DIISManager::add_entry      :      0.000u      0.000s      0.001w      7 calls
DIISManager::extrapolate    :      0.000u      0.000s      0.000w      6 calls
DIISManager::extrapolate: bMatrix setup:      0.000u      0.000s      0.000w      6 calls
DIISManager::extrapolate: bMatrix pseudoinverse:      0.000u      0.000s      0.000w      6 calls
DIISManager::extrapolate: form new data:      0.000u      0.000s      0.000w      6 calls
HF: Form C                  :      0.000u      0.000s      0.000w      8 calls
HF: Form D                  :      0.000u      0.000s      0.000w      8 calls

-----------------------------------------------------------
Total PK formation time     :      0.050u      0.000s      0.048w      1 calls
HF: Form H                  :      0.000u      0.000s      0.004w      1 calls
HF: Form S/X                :      0.000u      0.000s      0.000w      1 calls
HF: Guess                   :      0.150u      0.017s      0.159w      1 calls
| SAD Guess                 :      0.150u      0.017s      0.155w      1 calls
HF: Form G                  :      0.000u      0.000s      0.025w      8 calls
| JK: D                     :      0.000u      0.000s      0.000w      8 calls
| JK: USO2AO                :      0.000u      0.000s      0.000w      8 calls
| JK: JK                    :      0.000u      0.000s      0.024w      8 calls
| | PK computes JK          :      0.000u      0.000s      0.024w      8 calls
| JK: AO2USO                :      0.000u      0.000s      0.000w      8 calls
HF: Form F                  :      0.000u      0.000s      0.000w      8 calls
HF: DIIS                    :      0.000u      0.000s      0.001w      8 calls
| DIISManager::add_entry    :      0.000u      0.000s      0.001w      7 calls
| DIISManager::extrapolate  :      0.000u      0.000s      0.000w      6 calls
| | DIISManager::extrapolate: bMatrix setup:      0.000u      0.000s      0.000w      6 calls
| | DIISManager::extrapolate: bMatrix pseudoinverse:      0.000u      0.000s      0.000w      6 calls
| | DIISManager::extrapolate: form new data:      0.000u      0.000s      0.000w      6 calls
HF: Form C                  :      0.000u      0.000s      0.000w      8 calls
HF: Form D                  :      0.000u      0.000s      0.000w      8 calls

***********************************************************

Host: DTSs-MacBook-Pro-2.local

Timers On : Wed Jul 26 21:22:31 2017
Timers Off: Wed Jul 26 21:22:36 2017

Wall Time:        5.76 seconds

Total PK formation time     :      0.050u      0.000s      0.025w      1 calls
HF: Form H                  :      0.000u      0.000s      0.003w      1 calls
HF: Form S/X                :      0.000u      0.000s      0.000w      1 calls
HF: Guess                   :      0.150u      0.000s      0.190w      1 calls
SAD Guess                   :      0.150u      0.000s      0.187w      1 calls
HF: Form G                  :      0.000u      0.000s      0.016w      8 calls
JK: D                       :      0.000u      0.000s      0.000w      8 calls
JK: USO2AO                  :      0.000u      0.000s      0.000w      8 calls
JK: JK                      :      0.000u      0.000s      0.015w      8 calls
PK computes JK              :      0.000u      0.000s      0.015w      8 calls
JK: AO2USO                  :      0.000u      0.000s      0.000w      8 calls
HF: Form F                  :      0.000u      0.000s      0.000w      8 calls
HF: DIIS                    :      0.000u      0.000s      0.001w      8 calls
DIISManager::add_entry      :      0.000u      0.000s      0.001w      7 calls
DIISManager::extrapolate    :      0.000u      0.000s      0.001w      6 calls
DIISManager::extrapolate: bMatrix setup:      0.000u      0.000s      0.000w      6 calls
DIISManager::extrapolate: bMatrix pseudoinverse:      0.000u      0.000s      0.000w      6 calls
DIISManager::extrapolate: form new data:      0.000u      0.000s      0.000w      6 calls
HF: Form C                  :      0.000u      0.000s      0.000w      8 calls
HF: Form D                  :      0.000u      0.000s      0.000w      8 calls

-----------------------------------------------------------
Total PK formation time     :      0.050u      0.000s      0.025w      1 calls
HF: Form H                  :      0.000u      0.000s      0.003w      1 calls
HF: Form S/X                :      0.000u      0.000s      0.000w      1 calls
HF: Guess                   :      0.150u      0.000s      0.190w      1 calls
| SAD Guess                 :      0.150u      0.000s      0.187w      1 calls
HF: Form G                  :      0.000u      0.000s      0.016w      8 calls
| JK: D                     :      0.000u      0.000s      0.000w      8 calls
| JK: USO2AO                :      0.000u      0.000s      0.000w      8 calls
| JK: JK                    :      0.000u      0.000s      0.015w      8 calls
| | PK computes JK          :      0.000u      0.000s      0.015w      8 calls
| JK: AO2USO                :      0.000u      0.000s      0.000w      8 calls
HF: Form F                  :      0.000u      0.000s      0.000w      8 calls
HF: DIIS                    :      0.000u      0.000s      0.001w      8 calls
| DIISManager::add_entry    :      0.000u      0.000s      0.001w      7 calls
| DIISManager::extrapolate  :      0.000u      0.000s      0.001w      6 calls
| | DIISManager::extrapolate: bMatrix setup:      0.000u      0.000s      0.000w      6 calls
| | DIISManager::extrapolate: bMatrix pseudoinverse:      0.000u      0.000s      0.000w      6 calls
| | DIISManager::extrapolate: form new data:      0.000u      0.000s      0.000w      6 calls
HF: Form C                  :      0.000u      0.000s      0.000w      8 calls
HF: Form D                  :      0.000u      0.000s      0.000w      8 calls

***********************************************************
